LAMMPS Description
 
200 atoms
0 bonds
0 angles
0 dihedrals
0 impropers
 
1 atom types
 
0. 40. xlo xhi
0. 40. ylo yhi
0. 40. zlo zhi
 
Masses
 
1 39.948
 
Atoms
 
1 1 1 0.0 25.222618 36.884308 35.16994
2 2 1 0.0 15.369123 27.704813 36.243401
3 3 1 0.0 7.581613 7.915536 12.715512
4 4 1 0.0 0.886739 3.314322 39.689262
5 5 1 0.0 39.084015 6.3825 32.248702
6 6 1 0.0 19.999585 3.918188 37.893343
7 7 1 0.0 36.908395 35.585992 16.899393
8 8 1 0.0 16.201212 38.102283 38.785402
9 9 1 0.0 4.095057 19.099989 19.603726
10 10 1 0.0 18.948255 4.036478 19.757993
11 11 1 0.0 21.321689 29.05493 0.593026
12 12 1 0.0 20.470433 16.182805 26.187295
13 13 1 0.0 37.046182 15.460003 0.461976
14 14 1 0.0 3.187349 23.958477 2.763207
15 15 1 0.0 31.992876 25.328591 24.908704
16 16 1 0.0 32.145907 0.109305 11.919964
17 17 1 0.0 2.448596 26.941612 30.641489
18 18 1 0.0 17.480791 27.619662 19.006403
19 19 1 0.0 22.734178 15.254752 28.58032
20 20 1 0.0 26.173467 8.421458 21.888544
21 21 1 0.0 11.336977 10.902498 3.486945
22 22 1 0.0 2.200108 27.987739 7.282473
23 23 1 0.0 1e-06 32.495581 3.190935
24 24 1 0.0 28.142741 36.001396 14.003435
25 25 1 0.0 24.253356 1.493225 17.110999
26 26 1 0.0 2.316641 31.396596 4e-06
27 27 1 0.0 20.36457 25.275124 39.508482
28 28 1 0.0 22.380971 39.322648 30.271677
29 29 1 0.0 3.086212 7.915029 7.34836
30 30 1 0.0 2.6732 30.962559 10.992479
31 31 1 0.0 11.574407 18.589234 27.609962
32 32 1 0.0 6.941298 5.931754 8.715718
33 33 1 0.0 31.453526 32.476045 13.009474
34 34 1 0.0 14.577187 14.410076 7.523998
35 35 1 0.0 16.564394 33.151286 37.778803
36 36 1 0.0 19.633703 5.2225 32.80221
37 37 1 0.0 31.288911 0.797027 4.83042
38 38 1 0.0 10.132892 35.603532 0.83093
39 39 1 0.0 29.072467 35.845565 32.839004
40 40 1 0.0 9.590901 15.8777 11.282585
41 41 1 0.0 9.140683 3.523896 22.728108
42 42 1 0.0 37.212214 6.059544 21.365879
43 43 1 0.0 37.591081 35.937995 37.481373
44 44 1 0.0 2.812967 32.007641 5.358444
45 45 1 0.0 6.331862 9.971715 7.602897
46 46 1 0.0 25.337257 33.398487 32.436631
47 47 1 0.0 3.900501 27.41329 15.11523
48 48 1 0.0 16.154109 17.436909 9.166172
49 49 1 0.0 39.394183 38.691187 8.963893
50 50 1 0.0 25.720414 22.453756 14.568207
51 51 1 0.0 20.751779 25.390686 27.872014
52 52 1 0.0 6.377821 29.003164 31.155475
53 53 1 0.0 38.148392 21.217816 26.633214
54 54 1 0.0 21.937141 2.388718 19.921675
55 55 1 0.0 5.135879 0.56043 20.614449
56 56 1 0.0 39.064703 2.638715 36.037754
57 57 1 0.0 18.160399 30.65394 15.195045
58 58 1 0.0 8.14853 33.170804 26.721923
59 59 1 0.0 24.260173 36.514824 22.867639
60 60 1 0.0 23.557189 12.004148 1.431371
61 61 1 0.0 26.640294 6.91618 26.68743
62 62 1 0.0 16.352255 10.256113 25.224821
63 63 1 0.0 17.750167 7.86054 31.733714
64 64 1 0.0 1.154163 1.228183 18.355495
65 65 1 0.0 10.010232 8.606198 39.644891
66 66 1 0.0 5.505126 32.596699 2.405188
67 67 1 0.0 7.194846 39.968432 36.046297
68 68 1 0.0 32.705659 25.796883 3.264086
69 69 1 0.0 9.322712 38.336165 4.308302
70 70 1 0.0 30.544374 16.948228 3.941607
71 71 1 0.0 0.67902 20.372295 6.87001
72 72 1 0.0 18.213517 14.323045 10.425005
73 73 1 0.0 9.281582 9.218135 6.270651
74 74 1 0.0 25.423587 18.833058 7.391562
75 75 1 0.0 19.231193 35.220657 32.350585
76 76 1 0.0 22.630713 3.605379 26.411658
77 77 1 0.0 6.286194 21.021935 33.460382
78 78 1 0.0 2.990726 3.208488 15.428234
79 79 1 0.0 36.294657 28.904349 38.427834
80 80 1 0.0 0.71968 39.660138 26.231978
81 81 1 0.0 32.747526 21.659194 31.695416
82 82 1 0.0 3.62669 11.105468 37.693121
83 83 1 0.0 21.482848 21.21368 14.191976
84 84 1 0.0 0.362401 7.171733 32.119949
85 85 1 0.0 12.031344 6.7317 2.080544
86 86 1 0.0 25.270745 11.821821 29.953179
87 87 1 0.0 22.451094 7.480934 37.681103
88 88 1 0.0 22.30046 6.398446 21.1576
89 89 1 0.0 4.018259 33.653028 25.458091
90 90 1 0.0 1.745571 15.579155 37.851805
91 91 1 0.0 23.824625 2.311057 38.013325
92 92 1 0.0 31.221133 35.025244 5.288229
93 93 1 0.0 13.538914 19.113487 31.991385
94 94 1 0.0 13.52246 9.742963 11.443627
95 95 1 0.0 26.403951 35.967521 39.364388
96 96 1 0.0 36.794541 12.98201 22.554533
97 97 1 0.0 22.851481 20.255884 4.733384
98 98 1 0.0 16.580909 32.877531 22.470627
99 99 1 0.0 22.670945 26.071922 14.134965
100 100 1 0.0 34.15425 24.42169 8.175605
101 101 1 0.0 29.592729 7.956803 34.505818
102 102 1 0.0 12.113245 14.909888 5.374926
103 103 1 0.0 6.628799 35.667743 10.847244
104 104 1 0.0 4.609205 13.302342 19.254064
105 105 1 0.0 23.021513 20.954073 24.199909
106 106 1 0.0 11.976038 12.963398 11.139876
107 107 1 0.0 0.763467 15.519704 7.597702
108 108 1 0.0 4.095132 3.181453 2.398873
109 109 1 0.0 34.457816 13.13911 24.902602
110 110 1 0.0 33.899133 16.164368 34.13746
111 111 1 0.0 25.675849 5.09921 36.679793
112 112 1 0.0 9.106702 2.508501 34.045611
113 113 1 0.0 10.525546 35.441095 12.017354
114 114 1 0.0 22.510622 35.070941 32.760105
115 115 1 0.0 26.013495 37.70483 27.135526
116 116 1 0.0 24.245048 25.377371 8.988989
117 117 1 0.0 9.669404 30.113245 16.282432
118 118 1 0.0 9.781885 22.120243 28.523406
119 119 1 0.0 14.658579 0.218009 6.066504
120 120 1 0.0 8.803767 25.839717 35.215908
121 121 1 0.0 8.496904 18.237626 0.457095
122 122 1 0.0 21.848283 34.604988 18.309474
123 123 1 0.0 9.196254 2.243004 8.696648
124 124 1 0.0 11.312595 37.533503 19.268326
125 125 1 0.0 21.441836 8.942005 0.613702
126 126 1 0.0 14.745538 25.127433 0.604368
127 127 1 0.0 16.180945 33.096381 31.770323
128 128 1 0.0 8.295001 5.873265 34.986498
129 129 1 0.0 33.371591 0.18957 24.062881
130 130 1 0.0 10.804078 22.511511 21.542776
131 131 1 0.0 36.822704 20.686702 8.116289
132 132 1 0.0 8.678571 0.653593 20.826396
133 133 1 0.0 23.059521 15.918478 22.371728
134 134 1 0.0 30.515111 3.666347 17.979346
135 135 1 0.0 9.882439 25.906159 31.63677
136 136 1 0.0 14.752089 30.263382 18.739813
137 137 1 0.0 1.445879 6.144097 37.479634
138 138 1 0.0 24.359293 29.7912 30.991967
139 139 1 0.0 7.410388 2.387445 13.8322
140 140 1 0.0 9.623928 10.883005 13.373326
141 141 1 0.0 3.634063 4.334162 9.059515
142 142 1 0.0 1.718325 9.119561 25.275729
143 143 1 0.0 29.376601 28.600828 21.025121
144 144 1 0.0 17.756882 25.156244 3.623404
145 145 1 0.0 4.363184 28.008289 18.672531
146 146 1 0.0 4.035518 36.852018 3.118103
147 147 1 0.0 38.73822 20.424448 16.197698
148 148 1 0.0 22.800423 34.881707 10.281669
149 149 1 0.0 16.308689 4.088141 10.950773
150 150 1 0.0 31.580679 5.695117 36.856716
151 151 1 0.0 19.792771 5.113225 4.888445
152 152 1 0.0 1.802227 33.880919 12.619948
153 153 1 0.0 39.02459 32.702886 11.523303
154 154 1 0.0 36.102431 13.983429 5.655737
155 155 1 0.0 3.259991 23.656382 6.470488
156 156 1 0.0 10.826684 38.776596 22.569841
157 157 1 0.0 33.605061 37.377985 17.89522
158 158 1 0.0 39.999992 27.78809 26.129927
159 159 1 0.0 28.384861 36.526111 17.80261
160 160 1 0.0 2.63896 26.32762 10.611523
161 161 1 0.0 21.995693 29.2894 36.314536
162 162 1 0.0 5.344254 29.300131 4.874741
163 163 1 0.0 16.850119 1.984178 23.827242
164 164 1 0.0 6.868243 29.372567 23.623675
165 165 1 0.0 28.515932 17.616024 14.215937
166 166 1 0.0 36.664934 31.053523 30.94369
167 167 1 0.0 5.337164 35.650911 36.213422
168 168 1 0.0 0.487613 27.202251 0.571032
169 169 1 0.0 10.87188 25.647512 8.105931
170 170 1 0.0 12.165618 27.471788 21.555493
171 171 1 0.0 34.821073 8.444814 11.177093
172 172 1 0.0 6.040622 14.498906 26.454368
173 173 1 0.0 22.781466 6.854079 6.885946
174 174 1 0.0 5.81073 36.120923 15.460137
175 175 1 0.0 9.596357 9.550737 35.821931
176 176 1 0.0 7.055534 18.957444 17.731513
177 177 1 0.0 14.660637 2.971914 31.92165
178 178 1 0.0 25.022383 10.631953 4.682659
179 179 1 0.0 28.042327 11.871019 2.706285
180 180 1 0.0 18.544816 22.763695 16.598416
181 181 1 0.0 34.074468 6.132031 14.47343
182 182 1 0.0 21.303443 21.336978 27.418107
183 183 1 0.0 18.983791 27.949952 29.956036
184 184 1 0.0 20.250599 1.147476 1.530424
185 185 1 0.0 10.64603 30.371135 37.536187
186 186 1 0.0 22.076566 5.424325 15.019533
187 187 1 0.0 34.597138 5.627203 30.094064
188 188 1 0.0 32.101158 6.633149 7.219767
189 189 1 0.0 36.175235 13.526831 31.853349
190 190 1 0.0 15.940794 29.489789 25.196452
191 191 1 0.0 30.36239 19.412123 0.708174
192 192 1 0.0 8.58413 32.052278 39.625569
193 193 1 0.0 19.883773 4.615128 23.495075
194 194 1 0.0 12.976353 8.521627 32.913717
195 195 1 0.0 36.659741 25.468818 27.686507
196 196 1 0.0 35.294543 18.111873 30.966463
197 197 1 0.0 20.017028 10.766128 13.689468
198 198 1 0.0 26.97627 37.590023 11.170098
199 199 1 0.0 30.613684 18.958473 34.58251
200 200 1 0.0 16.422193 16.966469 19.177606
